
title='View'
 VARIABLES = x, y,"LevelSet" 
zone i=96  j=44  k=1  DATAPACKING=POINT 
-0.3947 -0.4561 0.32  
-0.3747 -0.4561 0.32  
-0.3547 -0.4561 0.32  
-0.3347 -0.4561 0.32  
-0.3147 -0.4561 0.32  
-0.2947 -0.4561 0.32  
-0.2747 -0.4561 0.32  
-0.2547 -0.4561 0.32  
-0.2347 -0.4561 0.32  
-0.2147 -0.4561 0.32  
-0.1947 -0.4561 0.32  
-0.1747 -0.4561 0.32  
-0.1547 -0.4561 0.32  
-0.1347 -0.4561 0.32  
-0.1147 -0.4561 0.32  
-0.0947 -0.4561 0.32  
-0.0747 -0.4561 0.32  
-0.0547 -0.4561 0.32  
-0.0347 -0.4561 0.32  
-0.0147 -0.4561 0.32  
0.0053 -0.4561 0.32  
0.0253 -0.4561 0.32  
0.0453 -0.4561 0.32  
0.0653 -0.4561 0.32  
0.0853 -0.4561 0.32  
0.1053 -0.4561 0.32  
0.1253 -0.4561 0.32  
0.1453 -0.4561 0.32  
0.1653 -0.4561 0.32  
0.1853 -0.4561 0.32  
0.2053 -0.4561 0.32  
0.2253 -0.4561 0.32  
0.2453 -0.4561 0.32  
0.2653 -0.4561 0.32  
0.2853 -0.4561 0.32  
0.3053 -0.4561 0.32  
0.3253 -0.4561 0.32  
0.3453 -0.4561 0.32  
0.3653 -0.4561 0.32  
0.3853 -0.4561 0.32  
0.4053 -0.4561 0.32  
0.4253 -0.4561 0.32  
0.4453 -0.4561 0.32  
0.4653 -0.4561 0.32  
0.4853 -0.4561 0.32  
0.5053 -0.4561 0.32  
0.5253 -0.4561 0.32  
0.5453 -0.4561 0.32  
0.5653 -0.4561 0.32  
0.5853 -0.4561 0.32  
0.6053 -0.4561 0.32  
0.6253 -0.4561 0.32  
0.6453 -0.4561 0.32  
0.6653 -0.4561 0.32  
0.6853 -0.4561 0.32  
0.7053 -0.4561 0.32  
0.7253 -0.4561 0.32  
0.7453 -0.4561 0.32  
0.7653 -0.4561 0.32  
0.7853 -0.4561 0.32  
0.8053 -0.4561 0.32  
0.8253 -0.4561 0.32  
0.8453 -0.4561 0.32  
0.8653 -0.4561 0.32  
0.8853 -0.4561 0.32  
0.9053 -0.4561 0.32  
0.9253 -0.4561 0.32  
0.9453 -0.4561 0.32  
0.9653 -0.4561 0.32  
0.9853 -0.4561 0.32  
1.0053 -0.4561 0.32  
1.0253 -0.4561 0.32  
1.0453 -0.4561 0.32  
1.0653 -0.4561 0.32  
1.0853 -0.4561 0.32  
1.1053 -0.4561 0.32  
1.1253 -0.4561 0.32  
1.1453 -0.4561 0.32  
1.1653 -0.4561 0.32  
1.1853 -0.4561 0.32  
1.2053 -0.4561 0.32  
1.2253 -0.4561 0.32  
1.2453 -0.4561 0.32  
1.2653 -0.4561 0.32  
1.2853 -0.4561 0.32  
1.3053 -0.4561 0.32  
1.3253 -0.4561 0.32  
1.3453 -0.4561 0.32  
1.3653 -0.4561 0.32  
1.3853 -0.4561 0.32  
1.4053 -0.4561 0.32  
1.4253 -0.4561 0.32  
1.4453 -0.4561 0.32  
1.4653 -0.4561 0.32  
1.4853 -0.4561 0.32  
1.5053 -0.4561 0.32  
-0.3947 -0.4361 0.32  
-0.3747 -0.4361 0.32  
-0.3547 -0.4361 0.32  
-0.3347 -0.4361 0.32  
-0.3147 -0.4361 0.32  
-0.2947 -0.4361 0.32  
-0.2747 -0.4361 0.32  
-0.2547 -0.4361 0.32  
-0.2347 -0.4361 0.32  
-0.2147 -0.4361 0.32  
-0.1947 -0.4361 0.32  
-0.1747 -0.4361 0.32  
-0.1547 -0.4361 0.32  
-0.1347 -0.4361 0.32  
-0.1147 -0.4361 0.32  
-0.0947 -0.4361 0.32  
-0.0747 -0.4361 0.32  
-0.0547 -0.4361 0.32  
-0.0347 -0.4361 0.32  
-0.0147 -0.4361 0.32  
0.0053 -0.4361 0.32  
0.0253 -0.4361 0.32  
0.0453 -0.4361 0.32  
0.0653 -0.4361 0.32  
0.0853 -0.4361 0.32  
0.1053 -0.4361 0.32  
0.1253 -0.4361 0.32  
0.1453 -0.4361 0.32  
0.1653 -0.4361 0.32  
0.1853 -0.4361 0.32  
0.2053 -0.4361 0.32  
0.2253 -0.4361 0.32  
0.2453 -0.4361 0.32  
0.2653 -0.4361 0.32  
0.2853 -0.4361 0.32  
0.3053 -0.4361 0.32  
0.3253 -0.4361 0.32  
0.3453 -0.4361 0.32  
0.3653 -0.4361 0.32  
0.3853 -0.4361 0.32  
0.4053 -0.4361 0.32  
0.4253 -0.4361 0.32  
0.4453 -0.4361 0.32  
0.4653 -0.4361 0.32  
0.4853 -0.4361 0.32  
0.5053 -0.4361 0.32  
0.5253 -0.4361 0.32  
0.5453 -0.4361 0.32  
0.5653 -0.4361 0.32  
0.5853 -0.4361 0.32  
0.6053 -0.4361 0.32  
0.6253 -0.4361 0.32  
0.6453 -0.4361 0.32  
0.6653 -0.4361 0.32  
0.6853 -0.4361 0.32  
0.7053 -0.4361 0.32  
0.7253 -0.4361 0.32  
0.7453 -0.4361 0.32  
0.7653 -0.4361 0.32  
0.7853 -0.4361 0.32  
0.8053 -0.4361 0.32  
0.8253 -0.4361 0.32  
0.8453 -0.4361 0.32  
0.8653 -0.4361 0.32  
0.8853 -0.4361 0.32  
0.9053 -0.4361 0.32  
0.9253 -0.4361 0.32  
0.9453 -0.4361 0.32  
0.9653 -0.4361 0.32  
0.9853 -0.4361 0.32  
1.0053 -0.4361 0.32  
1.0253 -0.4361 0.32  
1.0453 -0.4361 0.32  
1.0653 -0.4361 0.32  
1.0853 -0.4361 0.32  
1.1053 -0.4361 0.32  
1.1253 -0.4361 0.32  
1.1453 -0.4361 0.32  
1.1653 -0.4361 0.32  
1.1853 -0.4361 0.32  
1.2053 -0.4361 0.32  
1.2253 -0.4361 0.32  
1.2453 -0.4361 0.32  
1.2653 -0.4361 0.32  
1.2853 -0.4361 0.32  
1.3053 -0.4361 0.32  
1.3253 -0.4361 0.32  
1.3453 -0.4361 0.32  
1.3653 -0.4361 0.32  
1.3853 -0.4361 0.32  
1.4053 -0.4361 0.32  
1.4253 -0.4361 0.32  
1.4453 -0.4361 0.32  
1.4653 -0.4361 0.32  
1.4853 -0.4361 0.32  
1.5053 -0.4361 0.32  
-0.3947 -0.4161 0.32  
-0.3747 -0.4161 0.32  
-0.3547 -0.4161 0.32  
-0.3347 -0.4161 0.32  
-0.3147 -0.4161 0.32  
-0.2947 -0.4161 0.32  
-0.2747 -0.4161 0.32  
-0.2547 -0.4161 0.32  
-0.2347 -0.4161 0.32  
-0.2147 -0.4161 0.32  
-0.1947 -0.4161 0.32  
-0.1747 -0.4161 0.32  
-0.1547 -0.4161 0.32  
-0.1347 -0.4161 0.32  
-0.1147 -0.4161 0.32  
-0.0947 -0.4161 0.32  
-0.0747 -0.4161 0.32  
-0.0547 -0.4161 0.32  
-0.0347 -0.4161 0.32  
-0.0147 -0.4161 0.32  
0.0053 -0.4161 0.32  
0.0253 -0.4161 0.32  
0.0453 -0.4161 0.32  
0.0653 -0.4161 0.32  
0.0853 -0.4161 0.32  
0.1053 -0.4161 0.32  
0.1253 -0.4161 0.32  
0.1453 -0.4161 0.32  
0.1653 -0.4161 0.32  
0.1853 -0.4161 0.32  
0.2053 -0.4161 0.32  
0.2253 -0.4161 0.32  
0.2453 -0.4161 0.32  
0.2653 -0.4161 0.32  
0.2853 -0.4161 0.32  
0.3053 -0.4161 0.32  
0.3253 -0.4161 0.32  
0.3453 -0.4161 0.32  
0.3653 -0.4161 0.32  
0.3853 -0.4161 0.32  
0.4053 -0.4161 0.32  
0.4253 -0.4161 0.32  
0.4453 -0.4161 0.32  
0.4653 -0.4161 0.32  
0.4853 -0.4161 0.32  
0.5053 -0.4161 0.32  
0.5253 -0.4161 0.32  
0.5453 -0.4161 0.32  
0.5653 -0.4161 0.32  
0.5853 -0.4161 0.32  
0.6053 -0.4161 0.32  
0.6253 -0.4161 0.32  
0.6453 -0.4161 0.32  
0.6653 -0.4161 0.32  
0.6853 -0.4161 0.32  
0.7053 -0.4161 0.32  
0.7253 -0.4161 0.32  
0.7453 -0.4161 0.32  
0.7653 -0.4161 0.32  
0.7853 -0.4161 0.32  
0.8053 -0.4161 0.32  
0.8253 -0.4161 0.32  
0.8453 -0.4161 0.32  
0.8653 -0.4161 0.32  
0.8853 -0.4161 0.32  
0.9053 -0.4161 0.32  
0.9253 -0.4161 0.32  
0.9453 -0.4161 0.32  
0.9653 -0.4161 0.32  
0.9853 -0.4161 0.32  
1.0053 -0.4161 0.32  
1.0253 -0.4161 0.32  
1.0453 -0.4161 0.32  
1.0653 -0.4161 0.32  
1.0853 -0.4161 0.32  
1.1053 -0.4161 0.32  
1.1253 -0.4161 0.32  
1.1453 -0.4161 0.32  
1.1653 -0.4161 0.32  
1.1853 -0.4161 0.32  
1.2053 -0.4161 0.32  
1.2253 -0.4161 0.32  
1.2453 -0.4161 0.32  
1.2653 -0.4161 0.32  
1.2853 -0.4161 0.32  
1.3053 -0.4161 0.32  
1.3253 -0.4161 0.32  
1.3453 -0.4161 0.32  
1.3653 -0.4161 0.32  
1.3853 -0.4161 0.32  
1.4053 -0.4161 0.32  
1.4253 -0.4161 0.32  
1.4453 -0.4161 0.32  
1.4653 -0.4161 0.32  
1.4853 -0.4161 0.32  
1.5053 -0.4161 0.32  
-0.3947 -0.3961 0.32  
-0.3747 -0.3961 0.32  
-0.3547 -0.3961 0.32  
-0.3347 -0.3961 0.32  
-0.3147 -0.3961 0.32  
-0.2947 -0.3961 0.32  
-0.2747 -0.3961 0.32  
-0.2547 -0.3961 0.32  
-0.2347 -0.3961 0.32  
-0.2147 -0.3961 0.32  
-0.1947 -0.3961 0.32  
-0.1747 -0.3961 0.32  
-0.1547 -0.3961 0.32  
-0.1347 -0.3961 0.32  
-0.1147 -0.3961 0.32  
-0.0947 -0.3961 0.32  
-0.0747 -0.3961 0.32  
-0.0547 -0.3961 0.32  
-0.0347 -0.3961 0.32  
-0.0147 -0.3961 0.32  
0.0053 -0.3961 0.32  
0.0253 -0.3961 0.32  
0.0453 -0.3961 0.32  
0.0653 -0.3961 0.32  
0.0853 -0.3961 0.32  
0.1053 -0.3961 0.32  
0.1253 -0.3961 0.32  
0.1453 -0.3961 0.32  
0.1653 -0.3961 0.32  
0.1853 -0.3961 0.32  
0.2053 -0.3961 0.32  
0.2253 -0.3961 0.32  
0.2453 -0.3961 0.32  
0.2653 -0.3961 0.32  
0.2853 -0.3961 0.32  
0.3053 -0.3961 0.32  
0.3253 -0.3961 0.32  
0.3453 -0.3961 0.32  
0.3653 -0.3961 0.32  
0.3853 -0.3961 0.32  
0.4053 -0.3961 0.32  
0.4253 -0.3961 0.32  
0.4453 -0.3961 0.32  
0.4653 -0.3961 0.32  
0.4853 -0.3961 0.32  
0.5053 -0.3961 0.32  
0.5253 -0.3961 0.32  
0.5453 -0.3961 0.32  
0.5653 -0.3961 0.32  
0.5853 -0.3961 0.32  
0.6053 -0.3961 0.32  
0.6253 -0.3961 0.32  
0.6453 -0.3961 0.32  
0.6653 -0.3961 0.32  
0.6853 -0.3961 0.32  
0.7053 -0.3961 0.32  
0.7253 -0.3961 0.32  
0.7453 -0.3961 0.32  
0.7653 -0.3961 0.32  
0.7853 -0.3961 0.32  
0.8053 -0.3961 0.32  
0.8253 -0.3961 0.32  
0.8453 -0.3961 0.32  
0.8653 -0.3961 0.32  
0.8853 -0.3961 0.32  
0.9053 -0.3961 0.32  
0.9253 -0.3961 0.32  
0.9453 -0.3961 0.32  
0.9653 -0.3961 0.32  
0.9853 -0.3961 0.32  
1.0053 -0.3961 0.32  
1.0253 -0.3961 0.32  
1.0453 -0.3961 0.32  
1.0653 -0.3961 0.32  
1.0853 -0.3961 0.32  
1.1053 -0.3961 0.32  
1.1253 -0.3961 0.32  
1.1453 -0.3961 0.32  
1.1653 -0.3961 0.32  
1.1853 -0.3961 0.32  
1.2053 -0.3961 0.32  
1.2253 -0.3961 0.32  
1.2453 -0.3961 0.32  
1.2653 -0.3961 0.32  
1.2853 -0.3961 0.32  
1.3053 -0.3961 0.32  
1.3253 -0.3961 0.32  
1.3453 -0.3961 0.32  
1.3653 -0.3961 0.32  
1.3853 -0.3961 0.32  
1.4053 -0.3961 0.32  
1.4253 -0.3961 0.32  
1.4453 -0.3961 0.32  
1.4653 -0.3961 0.32  
1.4853 -0.3961 0.32  
1.5053 -0.3961 0.32  
-0.3947 -0.3761 0.32  
-0.3747 -0.3761 0.32  
-0.3547 -0.3761 0.32  
-0.3347 -0.3761 0.32  
-0.3147 -0.3761 0.32  
-0.2947 -0.3761 0.32  
-0.2747 -0.3761 0.32  
-0.2547 -0.3761 0.32  
-0.2347 -0.3761 0.32  
-0.2147 -0.3761 0.32  
-0.1947 -0.3761 0.32  
-0.1747 -0.3761 0.32  
-0.1547 -0.3761 0.32  
-0.1347 -0.3761 0.32  
-0.1147 -0.3761 0.32  
-0.0947 -0.3761 0.32  
-0.0747 -0.3761 0.32  
-0.0547 -0.3761 0.32  
-0.0347 -0.3761 0.32  
-0.0147 -0.3761 0.32  
0.0053 -0.3761 0.32  
0.0253 -0.3761 0.32  
0.0453 -0.3761 0.32  
0.0653 -0.3761 0.32  
0.0853 -0.3761 0.32  
0.1053 -0.3761 0.32  
0.1253 -0.3761 0.32  
0.1453 -0.3761 0.32  
0.1653 -0.3761 0.32  
0.1853 -0.3761 0.32  
0.2053 -0.3761 0.32  
0.2253 -0.3761 0.32  
0.2453 -0.3761 0.32  
0.2653 -0.3761 0.32  
0.2853 -0.3761 0.32  
0.3053 -0.3761 0.32  
0.3253 -0.3761 0.32  
0.3453 -0.3761 0.32  
0.3653 -0.3761 0.32  
0.3853 -0.3761 0.32  
0.4053 -0.3761 0.32  
0.4253 -0.3761 0.32  
0.4453 -0.3761 0.32  
0.4653 -0.3761 0.32  
0.4853 -0.3761 0.32  
0.5053 -0.3761 0.32  
0.5253 -0.3761 0.32  
0.5453 -0.3761 0.32  
0.5653 -0.3761 0.32  
0.5853 -0.3761 0.32  
0.6053 -0.3761 0.32  
0.6253 -0.3761 0.32  
0.6453 -0.3761 0.32  
0.6653 -0.3761 0.32  
0.6853 -0.3761 0.32  
0.7053 -0.3761 0.32  
0.7253 -0.3761 0.32  
0.7453 -0.3761 0.32  
0.7653 -0.3761 0.32  
0.7853 -0.3761 0.32  
0.8053 -0.3761 0.32  
0.8253 -0.3761 0.32  
0.8453 -0.3761 0.32  
0.8653 -0.3761 0.32  
0.8853 -0.3761 0.32  
0.9053 -0.3761 0.32  
0.9253 -0.3761 0.32  
0.9453 -0.3761 0.32  
0.9653 -0.3761 0.32  
0.9853 -0.3761 0.32  
1.0053 -0.3761 0.32  
1.0253 -0.3761 0.32  
1.0453 -0.3761 0.32  
1.0653 -0.3761 0.32  
1.0853 -0.3761 0.32  
1.1053 -0.3761 0.32  
1.1253 -0.3761 0.32  
1.1453 -0.3761 0.32  
1.1653 -0.3761 0.32  
1.1853 -0.3761 0.32  
1.2053 -0.3761 0.32  
1.2253 -0.3761 0.32  
1.2453 -0.3761 0.32  
1.2653 -0.3761 0.32  
1.2853 -0.3761 0.32  
1.3053 -0.3761 0.32  
1.3253 -0.3761 0.32  
1.3453 -0.3761 0.32  
1.3653 -0.3761 0.32  
1.3853 -0.3761 0.32  
1.4053 -0.3761 0.32  
1.4253 -0.3761 0.32  
1.4453 -0.3761 0.32  
1.4653 -0.3761 0.32  
1.4853 -0.3761 0.32  
1.5053 -0.3761 0.32  
-0.3947 -0.3561 0.32  
-0.3747 -0.3561 0.32  
-0.3547 -0.3561 0.32  
-0.3347 -0.3561 0.32  
-0.3147 -0.3561 0.32  
-0.2947 -0.3561 0.32  
-0.2747 -0.3561 0.32  
-0.2547 -0.3561 0.32  
-0.2347 -0.3561 0.32  
-0.2147 -0.3561 0.32  
-0.1947 -0.3561 0.32  
-0.1747 -0.3561 0.32  
-0.1547 -0.3561 0.32  
-0.1347 -0.3561 0.32  
-0.1147 -0.3561 0.32  
-0.0947 -0.3561 0.32  
-0.0747 -0.3561 0.32  
-0.0547 -0.3561 0.32  
-0.0347 -0.3561 0.32  
-0.0147 -0.3561 0.32  
0.0053 -0.3561 0.32  
0.0253 -0.3561 0.32  
0.0453 -0.3561 0.32  
0.0653 -0.3561 0.32  
0.0853 -0.3561 0.32  
0.1053 -0.3561 0.32  
0.1253 -0.3561 0.32  
0.1453 -0.3561 0.32  
0.1653 -0.3561 0.32  
0.1853 -0.3561 0.32  
0.2053 -0.3561 0.32  
0.2253 -0.3561 0.32  
0.2453 -0.3561 0.32  
0.2653 -0.3561 0.32  
0.2853 -0.3561 0.32  
0.3053 -0.3561 0.32  
0.3253 -0.3561 0.32  
0.3453 -0.3561 0.32  
0.3653 -0.3561 0.32  
0.3853 -0.3561 0.32  
0.4053 -0.3561 0.32  
0.4253 -0.3561 0.32  
0.4453 -0.3561 0.32  
0.4653 -0.3561 0.32  
0.4853 -0.3561 0.32  
0.5053 -0.3561 0.32  
0.5253 -0.3561 0.32  
0.5453 -0.3561 0.32  
0.5653 -0.3561 0.32  
0.5853 -0.3561 0.32  
0.6053 -0.3561 0.32  
0.6253 -0.3561 0.32  
0.6453 -0.3561 0.32  
0.6653 -0.3561 0.32  
0.6853 -0.3561 0.32  
0.7053 -0.3561 0.32  
0.7253 -0.3561 0.32  
0.7453 -0.3561 0.32  
0.7653 -0.3561 0.32  
0.7853 -0.3561 0.32  
0.8053 -0.3561 0.32  
0.8253 -0.3561 0.32  
0.8453 -0.3561 0.32  
0.8653 -0.3561 0.32  
0.8853 -0.3561 0.32  
0.9053 -0.3561 0.32  
0.9253 -0.3561 0.32  
0.9453 -0.3561 0.32  
0.9653 -0.3561 0.32  
0.9853 -0.3561 0.32  
1.0053 -0.3561 0.32  
1.0253 -0.3561 0.32  
1.0453 -0.3561 0.32  
1.0653 -0.3561 0.32  
1.0853 -0.3561 0.32  
1.1053 -0.3561 0.32  
1.1253 -0.3561 0.32  
1.1453 -0.3561 0.32  
1.1653 -0.3561 0.32  
1.1853 -0.3561 0.32  
1.2053 -0.3561 0.32  
1.2253 -0.3561 0.32  
1.2453 -0.3561 0.32  
1.2653 -0.3561 0.32  
1.2853 -0.3561 0.32  
1.3053 -0.3561 0.32  
1.3253 -0.3561 0.32  
1.3453 -0.3561 0.32  
1.3653 -0.3561 0.32  
1.3853 -0.3561 0.32  
1.4053 -0.3561 0.32  
1.4253 -0.3561 0.32  
1.4453 -0.3561 0.32  
1.4653 -0.3561 0.32  
1.4853 -0.3561 0.32  
1.5053 -0.3561 0.32  
-0.3947 -0.3361 0.32  
-0.3747 -0.3361 0.32  
-0.3547 -0.3361 0.32  
-0.3347 -0.3361 0.32  
-0.3147 -0.3361 0.32  
-0.2947 -0.3361 0.32  
-0.2747 -0.3361 0.32  
-0.2547 -0.3361 0.32  
-0.2347 -0.3361 0.32  
-0.2147 -0.3361 0.32  
-0.1947 -0.3361 0.32  
-0.1747 -0.3361 0.32  
-0.1547 -0.3361 0.32  
-0.1347 -0.3361 0.32  
-0.1147 -0.3361 0.32  
-0.0947 -0.3361 0.32  
-0.0747 -0.3361 0.32  
-0.0547 -0.3361 0.32  
-0.0347 -0.3361 0.32  
-0.0147 -0.3361 0.32  
0.0053 -0.3361 0.32  
0.0253 -0.3361 0.32  
0.0453 -0.3361 0.32  
0.0653 -0.3361 0.32  
0.0853 -0.3361 0.32  
0.1053 -0.3361 0.32  
0.1253 -0.3361 0.32  
0.1453 -0.3361 0.32  
0.1653 -0.3361 0.32  
0.1853 -0.3361 0.32  
0.2053 -0.3361 0.32  
0.2253 -0.3361 0.32  
0.2453 -0.3361 0.32  
0.2653 -0.3361 0.32  
0.2853 -0.3361 0.32  
0.3053 -0.3361 0.32  
0.3253 -0.3361 0.32  
0.3453 -0.3361 0.32  
0.3653 -0.3361 0.32  
0.3853 -0.3361 0.32  
0.4053 -0.3361 0.32  
0.4253 -0.3361 0.32  
0.4453 -0.3361 0.32  
0.4653 -0.3361 0.32  
0.4853 -0.3361 0.32  
0.5053 -0.3361 0.32  
0.5253 -0.3361 0.32  
0.5453 -0.3361 0.32  
0.5653 -0.3361 0.32  
0.5853 -0.3361 0.32  
0.6053 -0.3361 0.32  
0.6253 -0.3361 0.32  
0.6453 -0.3361 0.32  
0.6653 -0.3361 0.32  
0.6853 -0.3361 0.32  
0.7053 -0.3361 0.32  
0.7253 -0.3361 0.32  
0.7453 -0.3361 0.32  
0.7653 -0.3361 0.32  
0.7853 -0.3361 0.32  
0.8053 -0.3361 0.32  
0.8253 -0.3361 0.32  
0.8453 -0.3361 0.32  
0.8653 -0.3361 0.32  
0.8853 -0.3361 0.32  
0.9053 -0.3361 0.32  
0.9253 -0.3361 0.32  
0.9453 -0.3361 0.32  
0.9653 -0.3361 0.32  
0.9853 -0.3361 0.32  
1.0053 -0.3361 0.32  
1.0253 -0.3361 0.32  
1.0453 -0.3361 0.32  
1.0653 -0.3361 0.32  
1.0853 -0.3361 0.32  
1.1053 -0.3361 0.32  
1.1253 -0.3361 0.32  
1.1453 -0.3361 0.32  
1.1653 -0.3361 0.32  
1.1853 -0.3361 0.32  
1.2053 -0.3361 0.32  
1.2253 -0.3361 0.32  
1.2453 -0.3361 0.32  
1.2653 -0.3361 0.32  
1.2853 -0.3361 0.32  
1.3053 -0.3361 0.32  
1.3253 -0.3361 0.32  
1.3453 -0.3361 0.32  
1.3653 -0.3361 0.32  
1.3853 -0.3361 0.32  
1.4053 -0.3361 0.32  
1.4253 -0.3361 0.32  
1.4453 -0.3361 0.32  
1.4653 -0.3361 0.32  
1.4853 -0.3361 0.32  
1.5053 -0.3361 0.32  
-0.3947 -0.3161 0.32  
-0.3747 -0.3161 0.32  
-0.3547 -0.3161 0.32  
-0.3347 -0.3161 0.32  
-0.3147 -0.3161 0.32  
-0.2947 -0.3161 0.32  
-0.2747 -0.3161 0.32  
-0.2547 -0.3161 0.32  
-0.2347 -0.3161 0.32  
-0.2147 -0.3161 0.32  
-0.1947 -0.3161 0.32  
-0.1747 -0.3161 0.32  
-0.1547 -0.3161 0.32  
-0.1347 -0.3161 0.32  
-0.1147 -0.3161 0.32  
-0.0947 -0.3161 0.32  
-0.0747 -0.3161 0.32  
-0.0547 -0.3161 0.32  
-0.0347 -0.3161 0.32  
-0.0147 -0.3161 0.32  
0.0053 -0.3161 0.32  
0.0253 -0.3161 0.32  
0.0453 -0.3161 0.32  
0.0653 -0.3161 0.32  
0.0853 -0.3161 0.32  
0.1053 -0.3161 0.32  
0.1253 -0.3161 0.32  
0.1453 -0.3161 0.32  
0.1653 -0.3161 0.32  
0.1853 -0.3161 0.32  
0.2053 -0.3161 0.32  
0.2253 -0.3161 0.32  
0.2453 -0.3161 0.32  
0.2653 -0.3161 0.32  
0.2853 -0.3161 0.32  
0.3053 -0.3161 0.32  
0.3253 -0.3161 0.32  
0.3453 -0.3161 0.32  
0.3653 -0.3161 0.32  
0.3853 -0.3161 0.32  
0.4053 -0.3161 0.32  
0.4253 -0.3161 0.32  
0.4453 -0.3161 0.32  
0.4653 -0.3161 0.32  
0.4853 -0.3161 0.32  
0.5053 -0.3161 0.32  
0.5253 -0.3161 0.32  
0.5453 -0.3161 0.32  
0.5653 -0.3161 0.32  
0.5853 -0.3161 0.32  
0.6053 -0.3161 0.32  
0.6253 -0.3161 0.32  
0.6453 -0.3161 0.32  
0.6653 -0.3161 0.32  
0.6853 -0.3161 0.32  
0.7053 -0.3161 0.32  
0.7253 -0.3161 0.32  
0.7453 -0.3161 0.32  
0.7653 -0.3161 0.32  
0.7853 -0.3161 0.32  
0.8053 -0.3161 0.32  
0.8253 -0.3161 0.32  
0.8453 -0.3161 0.32  
0.8653 -0.3161 0.32  
0.8853 -0.3161 0.32  
0.9053 -0.3161 0.32  
0.9253 -0.3161 0.32  
0.9453 -0.3161 0.32  
0.9653 -0.3161 0.32  
0.9853 -0.3161 0.32  
1.0053 -0.3161 0.32  
1.0253 -0.3161 0.32  
1.0453 -0.3161 0.32  
1.0653 -0.3161 0.32  
1.0853 -0.3161 0.32  
1.1053 -0.3161 0.32  
1.1253 -0.3161 0.32  
1.1453 -0.3161 0.32  
1.1653 -0.3161 0.32  
1.1853 -0.3161 0.32  
1.2053 -0.3161 0.32  
1.2253 -0.3161 0.32  
1.2453 -0.3161 0.32  
1.2653 -0.3161 0.32  
1.2853 -0.3161 0.32  
1.3053 -0.3161 0.32  
1.3253 -0.3161 0.32  
1.3453 -0.3161 0.32  
1.3653 -0.3161 0.32  
1.3853 -0.3161 0.32  
1.4053 -0.3161 0.32  
1.4253 -0.3161 0.32  
1.4453 -0.3161 0.32  
1.4653 -0.3161 0.32  
1.4853 -0.3161 0.32  
1.5053 -0.3161 0.32  
-0.3947 -0.2961 0.32  
-0.3747 -0.2961 0.32  
-0.3547 -0.2961 0.32  
-0.3347 -0.2961 0.32  
-0.3147 -0.2961 0.32  
-0.2947 -0.2961 0.32  
-0.2747 -0.2961 0.32  
-0.2547 -0.2961 0.32  
-0.2347 -0.2961 0.24158  
-0.2147 -0.2961 0.229314  
-0.1947 -0.2961 0.218037  
-0.1747 -0.2961 0.207799  
-0.1547 -0.2961 0.199048  
-0.1347 -0.2961 0.191766  
-0.1147 -0.2961 0.186027  
-0.0947 -0.2961 0.182302  
-0.0747 -0.2961 0.180161  
-0.0547 -0.2961 0.179961  
-0.0347 -0.2961 0.181574  
-0.0147 -0.2961 0.184682  
0.0053 -0.2961 0.189046  
0.0253 -0.2961 0.194148  
0.0453 -0.2961 0.200662  
0.0653 -0.2961 0.208675  
0.0853 -0.2961 0.218232  
0.1053 -0.2961 0.22914  
0.1253 -0.2961 0.241216  
0.1453 -0.2961 0.250958  
0.1653 -0.2961 0.32  
0.1853 -0.2961 0.32  
0.2053 -0.2961 0.32  
0.2253 -0.2961 0.32  
0.2453 -0.2961 0.32  
0.2653 -0.2961 0.32  
0.2853 -0.2961 0.32  
0.3053 -0.2961 0.32  
0.3253 -0.2961 0.32  
0.3453 -0.2961 0.32  
0.3653 -0.2961 0.32  
0.3853 -0.2961 0.32  
0.4053 -0.2961 0.32  
0.4253 -0.2961 0.32  
0.4453 -0.2961 0.32  
0.4653 -0.2961 0.32  
0.4853 -0.2961 0.32  
0.5053 -0.2961 0.32  
0.5253 -0.2961 0.32  
0.5453 -0.2961 0.32  
0.5653 -0.2961 0.32  
0.5853 -0.2961 0.32  
0.6053 -0.2961 0.32  
0.6253 -0.2961 0.32  
0.6453 -0.2961 0.32  
0.6653 -0.2961 0.32  
0.6853 -0.2961 0.32  
0.7053 -0.2961 0.32  
0.7253 -0.2961 0.32  
0.7453 -0.2961 0.32  
0.7653 -0.2961 0.32  
0.7853 -0.2961 0.32  
0.8053 -0.2961 0.32  
0.8253 -0.2961 0.32  
0.8453 -0.2961 0.32  
0.8653 -0.2961 0.32  
0.8853 -0.2961 0.32  
0.9053 -0.2961 0.32  
0.9253 -0.2961 0.32  
0.9453 -0.2961 0.32  
0.9653 -0.2961 0.219072  
0.9853 -0.2961 0.2069  
1.0053 -0.2961 0.193982  
1.0253 -0.2961 0.181959  
1.0453 -0.2961 0.171432  
1.0653 -0.2961 0.162693  
1.0853 -0.2961 0.156042  
1.1053 -0.2961 0.151753  
1.1253 -0.2961 0.15003  
1.1453 -0.2961 0.15096  
1.1653 -0.2961 0.154496  
1.1853 -0.2961 0.160465  
1.2053 -0.2961 0.168609  
1.2253 -0.2961 0.178631  
1.2453 -0.2961 0.190234  
1.2653 -0.2961 0.203148  
1.2853 -0.2961 0.32  
1.3053 -0.2961 0.32  
1.3253 -0.2961 0.32  
1.3453 -0.2961 0.32  
1.3653 -0.2961 0.32  
1.3853 -0.2961 0.32  
1.4053 -0.2961 0.32  
1.4253 -0.2961 0.32  
1.4453 -0.2961 0.32  
1.4653 -0.2961 0.32  
1.4853 -0.2961 0.32  
1.5053 -0.2961 0.32  
-0.3947 -0.2761 0.32  
-0.3747 -0.2761 0.32  
-0.3547 -0.2761 0.32  
-0.3347 -0.2761 0.32  
-0.3147 -0.2761 0.32  
-0.2947 -0.2761 0.32  
-0.2747 -0.2761 0.32  
-0.2547 -0.2761 0.32  
-0.2347 -0.2761 0.226559  
-0.2147 -0.2761 0.213431  
-0.1947 -0.2761 0.201437  
-0.1747 -0.2761 0.190453  
-0.1547 -0.2761 0.180865  
-0.1347 -0.2761 0.173035  
-0.1147 -0.2761 0.166668  
-0.0947 -0.2761 0.162512  
-0.0747 -0.2761 0.160194  
-0.0547 -0.2761 0.159969  
-0.0347 -0.2761 0.161729  
-0.0147 -0.2761 0.165056  
0.0053 -0.2761 0.169642  
0.0253 -0.2761 0.175136  
0.0453 -0.2761 0.182135  
0.0653 -0.2761 0.190927  
0.0853 -0.2761 0.201329  
0.1053 -0.2761 0.213104  
0.1253 -0.2761 0.226038  
0.1453 -0.2761 0.231025  
0.1653 -0.2761 0.32  
0.1853 -0.2761 0.32  
0.2053 -0.2761 0.32  
0.2253 -0.2761 0.32  
0.2453 -0.2761 0.32  
0.2653 -0.2761 0.32  
0.2853 -0.2761 0.32  
0.3053 -0.2761 0.32  
0.3253 -0.2761 0.32  
0.3453 -0.2761 0.32  
0.3653 -0.2761 0.32  
0.3853 -0.2761 0.32  
0.4053 -0.2761 0.32  
0.4253 -0.2761 0.32  
0.4453 -0.2761 0.32  
0.4653 -0.2761 0.32  
0.4853 -0.2761 0.32  
0.5053 -0.2761 0.32  
0.5253 -0.2761 0.32  
0.5453 -0.2761 0.32  
0.5653 -0.2761 0.32  
0.5853 -0.2761 0.32  
0.6053 -0.2761 0.32  
0.6253 -0.2761 0.32  
0.6453 -0.2761 0.32  
0.6653 -0.2761 0.32  
0.6853 -0.2761 0.32  
0.7053 -0.2761 0.32  
0.7253 -0.2761 0.32  
0.7453 -0.2761 0.32  
0.7653 -0.2761 0.32  
0.7853 -0.2761 0.32  
0.8053 -0.2761 0.32  
0.8253 -0.2761 0.32  
0.8453 -0.2761 0.32  
0.8653 -0.2761 0.32  
0.8853 -0.2761 0.32  
0.9053 -0.2761 0.32  
0.9253 -0.2761 0.32  
0.9453 -0.2761 0.32  
0.9653 -0.2761 0.20277  
0.9853 -0.2761 0.191089  
1.0053 -0.2761 0.178719  
1.0253 -0.2761 0.165858  
1.0453 -0.2761 0.154237  
1.0653 -0.2761 0.144461  
1.0853 -0.2761 0.136927  
1.1053 -0.2761 0.132019  
1.1253 -0.2761 0.130035  
1.1453 -0.2761 0.131107  
1.1653 -0.2761 0.135163  
1.1853 -0.2761 0.141947  
1.2053 -0.2761 0.151093  
1.2253 -0.2761 0.1622  
1.2453 -0.2761 0.174897  
1.2653 -0.2761 0.188862  
1.2853 -0.2761 0.32  
1.3053 -0.2761 0.32  
1.3253 -0.2761 0.32  
1.3453 -0.2761 0.32  
1.3653 -0.2761 0.32  
1.3853 -0.2761 0.32  
1.4053 -0.2761 0.32  
1.4253 -0.2761 0.32  
1.4453 -0.2761 0.32  
1.4653 -0.2761 0.32  
1.4853 -0.2761 0.32  
1.5053 -0.2761 0.32  
-0.3947 -0.2561 0.32  
-0.3747 -0.2561 0.32  
-0.3547 -0.2561 0.32  
-0.3347 -0.2561 0.32  
-0.3147 -0.2561 0.32  
-0.2947 -0.2561 0.32  
-0.2747 -0.2561 0.32  
-0.2547 -0.2561 0.32  
-0.2347 -0.2561 0.212361  
-0.2147 -0.2561 0.198295  
-0.1947 -0.2561 0.185324  
-0.1747 -0.2561 0.173663  
-0.1547 -0.2561 0.163108  
-0.1347 -0.2561 0.154416  
-0.1147 -0.2561 0.147479  
-0.0947 -0.2561 0.142766  
-0.0747 -0.2561 0.140236  
-0.0547 -0.2561 0.139979  
-0.0347 -0.2561 0.141891  
-0.0147 -0.2561 0.145517  
0.0053 -0.2561 0.150205  
0.0253 -0.2561 0.156209  
0.0453 -0.2561 0.163955  
0.0653 -0.2561 0.17367  
0.0853 -0.2561 0.185044  
0.1053 -0.2561 0.197791  
0.1253 -0.2561 0.211663  
0.1453 -0.2561 0.211095  
0.1653 -0.2561 0.32  
0.1853 -0.2561 0.32  
0.2053 -0.2561 0.32  
0.2253 -0.2561 0.32  
0.2453 -0.2561 0.32  
0.2653 -0.2561 0.32  
0.2853 -0.2561 0.32  
0.3053 -0.2561 0.32  
0.3253 -0.2561 0.32  
0.3453 -0.2561 0.32  
0.3653 -0.2561 0.32  
0.3853 -0.2561 0.32  
0.4053 -0.2561 0.32  
0.4253 -0.2561 0.32  
0.4453 -0.2561 0.32  
0.4653 -0.2561 0.32  
0.4853 -0.2561 0.32  
0.5053 -0.2561 0.32  
0.5253 -0.2561 0.32  
0.5453 -0.2561 0.32  
0.5653 -0.2561 0.32  
0.5853 -0.2561 0.32  
0.6053 -0.2561 0.32  
0.6253 -0.2561 0.32  
0.6453 -0.2561 0.32  
0.6653 -0.2561 0.32  
0.6853 -0.2561 0.32  
0.7053 -0.2561 0.32  
0.7253 -0.2561 0.32  
0.7453 -0.2561 0.32  
0.7653 -0.2561 0.32  
0.7853 -0.2561 0.32  
0.8053 -0.2561 0.32  
0.8253 -0.2561 0.32  
0.8453 -0.2561 0.32  
0.8653 -0.2561 0.32  
0.8853 -0.2561 0.32  
0.9053 -0.2561 0.32  
0.9253 -0.2561 0.32  
0.9453 -0.2561 0.32  
0.9653 -0.2561 0.186081  
0.9853 -0.2561 0.17495  
1.0053 -0.2561 0.163106  
1.0253 -0.2561 0.150543  
1.0453 -0.2561 0.137801  
1.0653 -0.2561 0.126764  
1.0853 -0.2561 0.118106  
1.1053 -0.2561 0.112379  
1.1253 -0.2561 0.110041  
1.1453 -0.2561 0.111306  
1.1653 -0.2561 0.116056  
1.1853 -0.2561 0.123891  
1.2053 -0.2561 0.134272  
1.2253 -0.2561 0.146659  
1.2453 -0.2561 0.16059  
1.2653 -0.2561 0.175696  
1.2853 -0.2561 0.32  
1.3053 -0.2561 0.32  
1.3253 -0.2561 0.32  
1.3453 -0.2561 0.32  
1.3653 -0.2561 0.32  
1.3853 -0.2561 0.32  
1.4053 -0.2561 0.32  
1.4253 -0.2561 0.32  
1.4453 -0.2561 0.32  
1.4653 -0.2561 0.32  
1.4853 -0.2561 0.32  
1.5053 -0.2561 0.32  
-0.3947 -0.2361 0.32  
-0.3747 -0.2361 0.32  
-0.3547 -0.2361 0.32  
-0.3347 -0.2361 0.32  
-0.3147 -0.2361 0.32  
-0.2947 -0.2361 0.32  
-0.2747 -0.2361 0.32  
-0.2547 -0.2361 0.32  
-0.2347 -0.2361 0.199143  
-0.2147 -0.2361 0.18409  
-0.1947 -0.2361 0.170038  
-0.1747 -0.2361 0.15728  
-0.1547 -0.2361 0.145932  
-0.1347 -0.2361 0.136148  
-0.1147 -0.2361 0.128538  
-0.0947 -0.2361 0.123102  
-0.0747 -0.2361 0.120292  
-0.0547 -0.2361 0.119992  
-0.0347 -0.2361 0.122103  
-0.0147 -0.2361 0.125996  
0.0053 -0.2361 0.130926  
0.0253 -0.2361 0.137511  
0.0453 -0.2361 0.146251  
0.0653 -0.2361 0.157065  
0.0853 -0.2361 0.169556  
0.1053 -0.2361 0.183383  
0.1253 -0.2361 0.193135  
0.1453 -0.2361 0.191178  
0.1653 -0.2361 0.32  
0.1853 -0.2361 0.32  
0.2053 -0.2361 0.32  
0.2253 -0.2361 0.32  
0.2453 -0.2361 0.32  
0.2653 -0.2361 0.32  
0.2853 -0.2361 0.32  
0.3053 -0.2361 0.32  
0.3253 -0.2361 0.32  
0.3453 -0.2361 0.32  
0.3653 -0.2361 0.32  
0.3853 -0.2361 0.32  
0.4053 -0.2361 0.32  
0.4253 -0.2361 0.32  
0.4453 -0.2361 0.32  
0.4653 -0.2361 0.32  
0.4853 -0.2361 0.32  
0.5053 -0.2361 0.32  
0.5253 -0.2361 0.32  
0.5453 -0.2361 0.32  
0.5653 -0.2361 0.32  
0.5853 -0.2361 0.32  
0.6053 -0.2361 0.32  
0.6253 -0.2361 0.32  
0.6453 -0.2361 0.32  
0.6653 -0.2361 0.32  
0.6853 -0.2361 0.32  
0.7053 -0.2361 0.32  
0.7253 -0.2361 0.32  
0.7453 -0.2361 0.32  
0.7653 -0.2361 0.32  
0.7853 -0.2361 0.32  
0.8053 -0.2361 0.32  
0.8253 -0.2361 0.32  
0.8453 -0.2361 0.32  
0.8653 -0.2361 0.32  
0.8853 -0.2361 0.32  
0.9053 -0.2361 0.32  
0.9253 -0.2361 0.32  
0.9453 -0.2361 0.32  
0.9653 -0.2361 0.168997  
0.9853 -0.2361 0.158387  
1.0053 -0.2361 0.147031  
1.0253 -0.2361 0.1351  
1.0453 -0.2361 0.122367  
1.0653 -0.2361 0.109859  
1.0853 -0.2361 0.0997447  
1.1053 -0.2361 0.0928924  
1.1253 -0.2361 0.09005  
1.1453 -0.2361 0.0915915  
1.1653 -0.2361 0.0973088  
1.1853 -0.2361 0.106532  
1.2053 -0.2361 0.118444  
1.2253 -0.2361 0.132322  
1.2453 -0.2361 0.147611  
1.2653 -0.2361 0.163918  
1.2853 -0.2361 0.32  
1.3053 -0.2361 0.32  
1.3253 -0.2361 0.32  
1.3453 -0.2361 0.32  
1.3653 -0.2361 0.32  
1.3853 -0.2361 0.32  
1.4053 -0.2361 0.32  
1.4253 -0.2361 0.32  
1.4453 -0.2361 0.32  
1.4653 -0.2361 0.32  
1.4853 -0.2361 0.32  
1.5053 -0.2361 0.32  
-0.3947 -0.2161 0.32  
-0.3747 -0.2161 0.32  
-0.3547 -0.2161 0.32  
-0.3347 -0.2161 0.32  
-0.3147 -0.2161 0.32  
-0.2947 -0.2161 0.32  
-0.2747 -0.2161 0.32  
-0.2547 -0.2161 0.32  
-0.2347 -0.2161 0.186715  
-0.2147 -0.2161 0.170969  
-0.1947 -0.2161 0.155824  
-0.1747 -0.2161 0.141792  
-0.1547 -0.2161 0.129341  
-0.1347 -0.2161 0.118441  
-0.1147 -0.2161 0.109855  
-0.0947 -0.2161 0.103567  
-0.0747 -0.2161 0.10037  
-0.0547 -0.2161 0.10001  
-0.0347 -0.2161 0.102394  
-0.0147 -0.2161 0.106587  
0.0053 -0.2161 0.111891  
0.0253 -0.2161 0.119236  
0.0453 -0.2161 0.129218  
0.0653 -0.2161 0.141341  
0.0853 -0.2161 0.155104  
0.1053 -0.2161 0.17011  
0.1253 -0.2161 0.173231  
0.1453 -0.2161 0.171273  
0.1653 -0.2161 0.169515  
0.1853 -0.2161 0.167923  
0.2053 -0.2161 0.166515  
0.2253 -0.2161 0.165276  
0.2453 -0.2161 0.164197  
0.2653 -0.2161 0.163316  
0.2853 -0.2161 0.162636  
0.3053 -0.2161 0.162083  
0.3253 -0.2161 0.161737  
0.3453 -0.2161 0.161512  
0.3653 -0.2161 0.1615  
0.3853 -0.2161 0.161704  
0.4053 -0.2161 0.162124  
0.4253 -0.2161 0.162757  
0.4453 -0.2161 0.163702  
0.4653 -0.2161 0.164751  
0.4853 -0.2161 0.166111  
0.5053 -0.2161 0.167739  
0.5253 -0.2161 0.169631  
0.5453 -0.2161 0.171725  
0.5653 -0.2161 0.174105  
0.5853 -0.2161 0.176728  
0.6053 -0.2161 0.179563  
0.6253 -0.2161 0.182587  
0.6453 -0.2161 0.185853  
0.6653 -0.2161 0.189291  
0.6853 -0.2161 0.192778  
0.7053 -0.2161 0.196363  
0.7253 -0.2161 0.32  
0.7453 -0.2161 0.32  
0.7653 -0.2161 0.32  
0.7853 -0.2161 0.32  
0.8053 -0.2161 0.214972  
0.8253 -0.2161 0.207397  
0.8453 -0.2161 0.200555  
0.8653 -0.2161 0.193457  
0.8853 -0.2161 0.186067  
0.9053 -0.2161 0.178183  
0.9253 -0.2161 0.169857  
0.9453 -0.2161 0.161086  
0.9653 -0.2161 0.151642  
0.9853 -0.2161 0.141547  
1.0053 -0.2161 0.13066  
1.0253 -0.2161 0.119073  
1.0453 -0.2161 0.107029  
1.0653 -0.2161 0.094157  
1.0853 -0.2161 0.0821523  
1.1053 -0.2161 0.0736817  
1.1253 -0.2161 0.0700643  
1.1453 -0.2161 0.0720347  
1.1653 -0.2161 0.079177  
1.1853 -0.2161 0.0902718  
1.2053 -0.2161 0.104062  
1.2253 -0.2161 0.11962  
1.2453 -0.2161 0.136341  
1.2653 -0.2161 0.153697  
1.2853 -0.2161 0.32  
1.3053 -0.2161 0.32  
1.3253 -0.2161 0.32  
1.3453 -0.2161 0.32  
1.3653 -0.2161 0.32  
1.3853 -0.2161 0.32  
1.4053 -0.2161 0.32  
1.4253 -0.2161 0.32  
1.4453 -0.2161 0.32  
1.4653 -0.2161 0.32  
1.4853 -0.2161 0.32  
1.5053 -0.2161 0.32  
-0.3947 -0.1961 0.32  
-0.3747 -0.1961 0.32  
-0.3547 -0.1961 0.32  
-0.3347 -0.1961 0.32  
-0.3147 -0.1961 0.32  
-0.2947 -0.1961 0.32  
-0.2747 -0.1961 0.32  
-0.2547 -0.1961 0.32  
-0.2347 -0.1961 0.175666  
-0.2147 -0.1961 0.158829  
-0.1947 -0.1961 0.14281  
-0.1747 -0.1961 0.127566  
-0.1547 -0.1961 0.113565  
-0.1347 -0.1961 0.101553  
-0.1147 -0.1961 0.0914346  
-0.0947 -0.1961 0.0842504  
-0.0747 -0.1961 0.0804866  
-0.0547 -0.1961 0.0800381  
-0.0347 -0.1961 0.0827166  
-0.0147 -0.1961 0.0871867  
0.0053 -0.1961 0.0929801  
0.0253 -0.1961 0.101613  
0.0453 -0.1961 0.11316  
0.0653 -0.1961 0.126828  
0.0853 -0.1961 0.142005  
0.1053 -0.1961 0.155569  
0.1253 -0.1961 0.153327  
0.1453 -0.1961 0.15137  
0.1653 -0.1961 0.149611  
0.1853 -0.1961 0.147966  
0.2053 -0.1961 0.146557  
0.2253 -0.1961 0.1453  
0.2453 -0.1961 0.14422  
0.2653 -0.1961 0.14334  
0.2853 -0.1961 0.142646  
0.3053 -0.1961 0.142094  
0.3253 -0.1961 0.14174  
0.3453 -0.1961 0.141514  
0.3653 -0.1961 0.1415  
0.3853 -0.1961 0.141705  
0.4053 -0.1961 0.142128  
0.4253 -0.1961 0.142768  
0.4453 -0.1961 0.143726  
0.4653 -0.1961 0.144794  
0.4853 -0.1961 0.146175  
0.5053 -0.1961 0.147806  
0.5253 -0.1961 0.149727  
0.5453 -0.1961 0.151856  
0.5653 -0.1961 0.154235  
0.5853 -0.1961 0.156904  
0.6053 -0.1961 0.159777  
0.6253 -0.1961 0.162854  